
  ___ ___ ___ _ _ _  
 |   |   |_  | | | | 
 | | | | | . | | | | 
 |__ |  _|___|_____|  24.6.0
 |___|_|             

User:   lucas@z6r1u3
Date:   Tue Aug 13 15:55:11 2024
Arch:   x86_64
Pid:    2134117
CWD:    /home/lucas/lorentz/sjm-1
Python: 3.10.14
gpaw:   /home/lucas/miniconda3/envs/gpaw/lib/python3.10/site-packages/gpaw
_gpaw:  /home/lucas/miniconda3/envs/gpaw/lib/python3.10/site-packages/
        _gpaw.cpython-310-x86_64-linux-gnu.so
ase:    /home/lucas/miniconda3/envs/gpaw/lib/python3.10/site-packages/ase (version 3.23.0)
numpy:  /home/lucas/miniconda3/envs/gpaw/lib/python3.10/site-packages/numpy (version 1.26.4)
scipy:  /home/lucas/miniconda3/envs/gpaw/lib/python3.10/site-packages/scipy (version 1.14.0)
libxc:  6.2.2
units:  Angstrom and eV
cores: 16
OpenMP: False
OMP_NUM_THREADS: 16

Input parameters:
  mode: fd
  xc: RPBE

System changes: positions, numbers, cell, pbc, initial_charges, initial_magmoms 

Initialize ...

species:
  C:
    name: Carbon
    id: 5e1162da8ccece2d28d8b78a977ec463
    Z: 6.0
    valence: 4
    core: 2
    charge: 0.0
    file: /home/lucas/gpaw-data/gpaw-setups-24.1.0/C.RPBE.gz
    compensation charges: {type: gauss,
                           rc: 0.20,
                           lmax: 2}
    cutoffs: {filter: 1.14,
              core: 1.14}
    projectors:
      #              energy  rcut
      - 2s(2.00)   -13.815   0.635
      - 2p(2.00)    -5.254   0.635
      -  s          13.396   0.635
      -  p          21.957   0.635
      -  d           0.000   0.635
  
    # Using partial waves for C as LCAO basis

  O:
    name: Oxygen
    id: 08071ca1eed670e7821b24b7eb4d558c
    Z: 8.0
    valence: 6
    core: 2
    charge: 0.0
    file: /home/lucas/gpaw-data/gpaw-setups-24.1.0/O.RPBE.gz
    compensation charges: {type: gauss,
                           rc: 0.21,
                           lmax: 2}
    cutoffs: {filter: 1.17,
              core: 0.83}
    projectors:
      #              energy  rcut
      - 2s(2.00)   -24.041   0.688
      - 2p(4.00)    -8.984   0.598
      -  s           3.170   0.688
      -  p          18.228   0.598
      -  d           0.000   0.619
  
    # Using partial waves for O as LCAO basis

Reference energy: -5115.309344  # eV

Spin-paired calculation

Convergence criteria:
 Maximum [total energy] change in last 3 cyles: 0.0005 eV / valence electron
 Maximum integral of absolute [dens]ity change: 0.0001 electrons / valence electron
 Maximum integral of absolute [eigenst]ate change: 4e-08 eV^2 / valence electron
 Maximum number of scf [iter]ations: 333
 (Square brackets indicate name in SCF output, whereas a 'c' in
 the SCF output indicates the quantity has converged.)

Symmetries present (total): 16

  ( 1  0  0)  ( 1  0  0)  ( 1  0  0)  ( 1  0  0)  ( 0  1  0)  ( 0  1  0)
  ( 0  1  0)  ( 0  1  0)  ( 0 -1  0)  ( 0 -1  0)  ( 1  0  0)  ( 1  0  0)
  ( 0  0  1)  ( 0  0 -1)  ( 0  0  1)  ( 0  0 -1)  ( 0  0  1)  ( 0  0 -1)

  ( 0  1  0)  ( 0  1  0)  ( 0 -1  0)  ( 0 -1  0)  ( 0 -1  0)  ( 0 -1  0)
  (-1  0  0)  (-1  0  0)  ( 1  0  0)  ( 1  0  0)  (-1  0  0)  (-1  0  0)
  ( 0  0  1)  ( 0  0 -1)  ( 0  0  1)  ( 0  0 -1)  ( 0  0  1)  ( 0  0 -1)

  (-1  0  0)  (-1  0  0)  (-1  0  0)  (-1  0  0)
  ( 0  1  0)  ( 0  1  0)  ( 0 -1  0)  ( 0 -1  0)
  ( 0  0  1)  ( 0  0 -1)  ( 0  0  1)  ( 0  0 -1)

1 k-point (Gamma)
1 k-point in the irreducible part of the Brillouin zone
       k-points in crystal coordinates                weights
   0:     0.00000000    0.00000000    0.00000000          1/1

Wave functions: Uniform real-space grid
  Kinetic energy operator: 6*3+1=19 point O(h^6) finite-difference Laplacian
  ScaLapack parameters: grid=1x1, blocksize=None
  Wavefunction extrapolation:
    Improved wavefunction reuse through dual PAW basis 

Occupation numbers: Fermi-Dirac:
  width: 0.1000  # eV
 

Eigensolver
   Davidson(niter=2) 

Densities:
  Coarse grid: 72*72*80 grid
  Fine grid: 144*144*160 grid
  Total Charge: 0.000000 

Density mixing:
  Method: separate
  Backend: pulay
  Linear mixing parameter: 0.05
  old densities: 5
  Damping of long wavelength oscillations: 50 

Hamiltonian:
  XC and Coulomb potentials evaluated on a 144*144*160 grid
  Using the RPBE Exchange-Correlation functional
  Interpolation: tri-quintic (5. degree polynomial)
  Poisson solver: FastPoissonSolver using
    Stencil: 6*3+1=19 point O(h^6) finite-difference Laplacian
    FFT axes: [0, 1]
    FST axes: [2]
 

XC parameters: RPBE with 2 nearest neighbor stencil

Memory estimate:
  Process memory now: 176.73 MiB
  Calculator: 15.78 MiB
    Density: 7.02 MiB
      Arrays: 5.00 MiB
      Localized functions: 0.14 MiB
      Mixer: 1.88 MiB
    Hamiltonian: 3.28 MiB
      Arrays: 3.27 MiB
      XC: 0.00 MiB
      Poisson: 0.00 MiB
      vbar: 0.01 MiB
    Wavefunctions: 5.48 MiB
      Arrays psit_nG: 2.25 MiB
      Eigensolver: 3.21 MiB
      Projections: 0.00 MiB
      Projectors: 0.02 MiB

Total number of cores used: 16
Domain decomposition: 2 x 2 x 4

Number of atoms: 3
Number of atomic orbitals: 12
Number of bands in calculation: 12
Number of valence electrons: 16
Bands to converge: occupied

... initialized

Initializing position-dependent things.

Density initialized from atomic densities
Creating initial wave functions:
  12 bands from LCAO basis set

          .---------------------------------.  
         /|                                 |  
        / |                                 |  
       /  |                                 |  
      /   |                                 |  
     /    |                                 |  
    /     |                                 |  
   /      |                                 |  
  /       |                                 |  
 *        |                                 |  
 |        |                                 |  
 |        |                                 |  
 |        |                                 |  
 |        |            O                    |  
 |        |                                 |  
 |        |            C                    |  
 |        |            O                    |  
 |        |                                 |  
 |        |                                 |  
 |        |                                 |  
 |        .---------------------------------.  
 |       /                                 /   
 |      /                                 /    
 |     /                                 /     
 |    /                                 /      
 |   /                                 /       
 |  /                                 /        
 | /                                 /         
 |/                                 /          
 *---------------------------------*           

Positions:
   0 C      7.000000    7.000000    8.178658    ( 0.0000,  0.0000,  0.0000)
   1 O      7.000000    7.000000    9.355282    ( 0.0000,  0.0000,  0.0000)
   2 O      7.000000    7.000000    7.002035    ( 0.0000,  0.0000,  0.0000)

Unit cell:
           periodic     x           y           z      points  spacing
  1. axis:    yes   14.000000    0.000000    0.000000    72     0.1944
  2. axis:    yes    0.000000   14.000000    0.000000    72     0.1944
  3. axis:    no     0.000000    0.000000   16.357316    80     0.2045

  Lengths:  14.000000  14.000000  16.357316
  Angles:   90.000000  90.000000  90.000000

Effective grid spacing dv^(1/3) = 0.1977

     iter     time        total  log10-change:
                         energy   eigst   dens
iter:   1 15:55:29   -24.623425
iter:   2 15:55:43   -24.396220   +0.26  -0.88
iter:   3 15:55:57   -23.442081   +0.26  -0.93
iter:   4 15:56:14   -23.317105   -0.04  -1.20
iter:   5 15:56:30   -23.299245   -0.62  -1.36
iter:   6 15:56:48   -23.284790   -0.67  -1.63
iter:   7 15:57:06   -23.274004   -0.90  -1.66
iter:   8 15:57:24   -23.225420   -1.14  -1.68
iter:   9 15:57:41   -23.223513   -1.92  -2.37
iter:  10 15:57:59   -23.223759c  -2.19  -2.69
iter:  11 15:58:16   -23.223552c  -2.93  -2.71
iter:  12 15:58:34   -23.223644c  -3.58  -2.99
iter:  13 15:58:51   -23.223470c  -3.65  -2.92
iter:  14 15:59:08   -23.223470c  -4.01  -3.60
iter:  15 15:59:25   -23.223469c  -4.92  -3.69
iter:  16 15:59:42   -23.223468c  -5.53  -3.69
iter:  17 15:59:59   -23.223468c  -5.84  -3.83
iter:  18 16:00:17   -23.223478c  -5.30  -3.89
iter:  19 16:00:34   -23.223471c  -4.71  -3.59
iter:  20 16:00:51   -23.223468c  -5.06  -3.75
iter:  21 16:01:09   -23.223468c  -5.61  -4.24c
iter:  22 16:01:26   -23.223469c  -5.89  -4.25c
iter:  23 16:01:44   -23.223468c  -5.54  -4.01c
iter:  24 16:02:00   -23.223468c  -6.52  -4.82c
iter:  25 16:02:18   -23.223468c  -6.54  -4.85c
iter:  26 16:02:35   -23.223468c  -6.30  -4.35c
iter:  27 16:02:52   -23.223468c  -7.10  -5.22c
iter:  28 16:03:09   -23.223468c  -8.05c -5.31c

Converged after 28 iterations.

Dipole moment: (0.000000, 0.000000, 0.000000) |e|*Ang

Energy contributions relative to reference atoms: (reference = -5115.309344)

Kinetic:        +27.599407
Potential:      -32.737913
External:        +0.000000
XC:             -19.448230
Entropy (-ST):   -0.000000
Local:           +1.363269
SIC:             +0.000000
--------------------------
Free energy:    -23.223468
Extrapolated:   -23.223468

 Band  Eigenvalues  Occupancy
    0    -29.05052    2.00000
    1    -28.01262    2.00000
    2    -13.88389    2.00000
    3    -12.65791    2.00000
    4    -12.56591    2.00000
    5    -12.56591    2.00000
    6     -9.03181    2.00000
    7     -9.03181    2.00000
    8     -1.08521    0.00000
    9     -0.51363    0.00000
   10     -0.51363    0.00000
   11      0.36238    0.00000

Fermi level: -6.04184

Gap: 7.947 eV
Transition (v -> c):
  (s=0, k=0, n=7, [[0.00, 0.00, 0.00]]) -> (s=0, k=0, n=8, [[0.00, 0.00, 0.00]])
No difference between direct/indirect transitions
Timing:                              incl.     excl.
-----------------------------------------------------------
Hamiltonian:                         2.101     0.000   0.0% |
 Atomic:                             0.000     0.000   0.0% |
  XC Correction:                     0.000     0.000   0.0% |
 Calculate atomic Hamiltonians:      0.000     0.000   0.0% |
 Communicate:                        0.185     0.185   0.0% |
 Hartree integrate/restrict:         0.037     0.037   0.0% |
 Initialize Hamiltonian:             0.001     0.001   0.0% |
 Poisson:                            0.372     0.021   0.0% |
  Communicate from 1D:               0.076     0.076   0.0% |
  Communicate from 2D:               0.043     0.043   0.0% |
  Communicate to 1D:                 0.038     0.038   0.0% |
  Communicate to 2D:                 0.056     0.056   0.0% |
  FFT 1D:                            0.089     0.089   0.0% |
  FFT 2D:                            0.048     0.048   0.0% |
 XC 3D grid:                         1.496     1.496   0.3% |
 vbar:                               0.009     0.009   0.0% |
LCAO initialization:                 0.340     0.109   0.0% |
 LCAO eigensolver:                   0.077     0.000   0.0% |
  Calculate projections:             0.000     0.000   0.0% |
  DenseAtomicCorrection:             0.000     0.000   0.0% |
  Distribute overlap matrix:         0.030     0.030   0.0% |
  Orbital Layouts:                   0.046     0.046   0.0% |
  Potential matrix:                  0.000     0.000   0.0% |
 LCAO to grid:                       0.002     0.002   0.0% |
 Set positions (LCAO WFS):           0.151     0.091   0.0% |
  Basic WFS set positions:           0.003     0.003   0.0% |
  Basis functions set positions:     0.000     0.000   0.0% |
  P tci:                             0.000     0.000   0.0% |
  ST tci:                            0.002     0.002   0.0% |
  mktci:                             0.055     0.055   0.0% |
SCF-cycle:                         471.336     0.031   0.0% |
 Davidson:                         281.840   186.898  39.1% |---------------|
  Apply hamiltonian:                 9.649     9.649   2.0% ||
  Subspace diag:                    26.729     0.005   0.0% |
   calc_h_matrix:                    2.611     0.700   0.1% |
    Apply hamiltonian:               1.911     1.911   0.4% |
   diagonalize:                      1.754     1.754   0.4% |
   rotate_psi:                      22.360    22.360   4.7% |-|
  calc. matrices:                   10.443     8.771   1.8% ||
   Apply hamiltonian:                1.672     1.672   0.3% |
  diagonalize:                       0.582     0.582   0.1% |
  rotate_psi:                       47.540    47.540   9.9% |---|
 Density:                          129.509     0.001   0.0% |
  Atomic density matrices:           0.039     0.039   0.0% |
  Mix:                             109.989   109.989  23.0% |--------|
  Multipole moments:                 0.005     0.005   0.0% |
  Pseudo density:                   19.475     0.045   0.0% |
   Symmetrize density:              19.429    19.429   4.1% |-|
 Hamiltonian:                       59.359     0.009   0.0% |
  Atomic:                            0.013     0.013   0.0% |
   XC Correction:                    0.000     0.000   0.0% |
  Calculate atomic Hamiltonians:     0.016     0.016   0.0% |
  Communicate:                       4.236     4.236   0.9% |
  Hartree integrate/restrict:        0.890     0.890   0.2% |
  Poisson:                           9.269     0.608   0.1% |
   Communicate from 1D:              2.099     2.099   0.4% |
   Communicate from 2D:              1.174     1.174   0.2% |
   Communicate to 1D:                1.025     1.025   0.2% |
   Communicate to 2D:                1.504     1.504   0.3% |
   FFT 1D:                           1.531     1.531   0.3% |
   FFT 2D:                           1.328     1.328   0.3% |
  XC 3D grid:                       44.787    44.787   9.4% |---|
  vbar:                              0.139     0.139   0.0% |
 Orthonormalize:                     0.597     0.000   0.0% |
  calc_s_matrix:                     0.054     0.054   0.0% |
  inverse-cholesky:                  0.355     0.355   0.1% |
  projections:                       0.000     0.000   0.0% |
  rotate_psi_s:                      0.187     0.187   0.0% |
Set symmetry:                        0.006     0.006   0.0% |
Other:                               4.736     4.736   1.0% |
-----------------------------------------------------------
Total:                                       478.520 100.0%

Memory usage: 227.45 MiB
Date: Tue Aug 13 16:03:09 2024
